<?xml version="1.0" encoding="UTF-8"?>

<!-- generated on 2026-05-05T00:05:22.529929+05:30 by Eclipse SUMO sumo 1.26.0
<sumoConfiguration xmlns:xsi="http://www.w3.org/2001/XMLSchema-instance" xsi:noNamespaceSchemaLocation="http://sumo.dlr.de/xsd/sumoConfiguration.xsd">

    <input>
        <net-file value="network/map.net.xml"/>
        <route-files value="network/accident.rou.xml"/>
    </input>

    <output>
        <tripinfo-output value="network/tripinfo_output.xml"/>
    </output>

    <time>
        <begin value="0"/>
        <end value="3600"/>
    </time>

    <traci_server>
        <remote-port value="54226"/>
    </traci_server>

</sumoConfiguration>
-->

<tripinfos xmlns:xsi="http://www.w3.org/2001/XMLSchema-instance" xsi:noNamespaceSchemaLocation="http://sumo.dlr.de/xsd/tripinfo_file.xsd">
    <tripinfo id="flow_EW.0" depart="0.00" departLane="-E12_0" departPos="5.10" departSpeed="0.00" departDelay="0.00" arrival="37.00" arrivalLane="E13_0" arrivalPos="223.35" arrivalSpeed="13.97" duration="37.00" routeLength="458.33" waitingTime="0.00" waitingCount="0" stopTime="0.00" timeLoss="4.04" rerouteNo="0" devices="tripinfo_flow_EW.0 routing_flow_EW.0" vType="standard_car" speedFactor="1.01" vaporized=""/>
    <tripinfo id="flow_WE.0" depart="0.00" departLane="-E13_0" departPos="5.10" departSpeed="0.00" departDelay="0.00" arrival="37.00" arrivalLane="E12_0" arrivalPos="219.10" arrivalSpeed="13.42" duration="37.00" routeLength="458.32" waitingTime="0.00" waitingCount="0" stopTime="0.00" timeLoss="4.85" rerouteNo="0" devices="tripinfo_flow_WE.0 routing_flow_WE.0" vType="standard_car" speedFactor="1.03" vaporized=""/>
    <tripinfo id="flow_WE.1" depart="5.00" departLane="-E13_1" departPos="5.10" departSpeed="0.00" departDelay="0.50" arrival="45.00" arrivalLane="E12_0" arrivalPos="219.10" arrivalSpeed="11.80" duration="40.00" routeLength="458.32" waitingTime="0.00" waitingCount="0" stopTime="0.00" timeLoss="4.11" rerouteNo="0" devices="tripinfo_flow_WE.1 routing_flow_WE.1" vType="standard_car" speedFactor="0.94" vaporized=""/>
    <tripinfo id="flow_EW.2" depart="9.00" departLane="-E12_0" departPos="5.10" departSpeed="0.00" departDelay="0.00" arrival="46.00" arrivalLane="E13_1" arrivalPos="223.35" arrivalSpeed="14.07" duration="37.00" routeLength="458.33" waitingTime="0.00" waitingCount="0" stopTime="0.00" timeLoss="4.57" rerouteNo="0" devices="tripinfo_flow_EW.2 routing_flow_EW.2" vType="standard_car" speedFactor="1.03" vaporized=""/>
    <tripinfo id="flow_WE.2" depart="9.00" departLane="-E13_0" departPos="5.10" departSpeed="0.00" departDelay="0.00" arrival="46.00" arrivalLane="E12_0" arrivalPos="219.10" arrivalSpeed="14.47" duration="37.00" routeLength="458.32" waitingTime="0.00" waitingCount="0" stopTime="0.00" timeLoss="5.38" rerouteNo="0" devices="tripinfo_flow_WE.2 routing_flow_WE.2" vType="standard_car" speedFactor="1.05" vaporized=""/>
    <tripinfo id="flow_EW.1" depart="5.00" departLane="-E12_1" departPos="5.10" departSpeed="0.00" departDelay="0.50" arrival="47.00" arrivalLane="E13_0" arrivalPos="223.35" arrivalSpeed="11.61" duration="42.00" routeLength="458.33" waitingTime="0.00" waitingCount="0" stopTime="0.00" timeLoss="4.65" rerouteNo="0" devices="tripinfo_flow_EW.1 routing_flow_EW.1" vType="standard_car" speedFactor="0.89" vaporized=""/>
    <tripinfo id="flow_EW.3" depart="14.00" departLane="-E12_1" departPos="5.10" departSpeed="0.00" departDelay="0.50" arrival="54.00" arrivalLane="E13_0" arrivalPos="223.35" arrivalSpeed="12.20" duration="40.00" routeLength="458.33" waitingTime="0.00" waitingCount="0" stopTime="0.00" timeLoss="4.33" rerouteNo="0" devices="tripinfo_flow_EW.3 routing_flow_EW.3" vType="standard_car" speedFactor="0.93" vaporized=""/>
    <tripinfo id="flow_EW.4" depart="18.00" departLane="-E12_0" departPos="5.10" departSpeed="0.00" departDelay="0.00" arrival="56.00" arrivalLane="E13_0" arrivalPos="223.35" arrivalSpeed="13.01" duration="38.00" routeLength="458.33" waitingTime="0.00" waitingCount="0" stopTime="0.00" timeLoss="5.16" rerouteNo="0" devices="tripinfo_flow_EW.4 routing_flow_EW.4" vType="standard_car" speedFactor="1.02" vaporized=""/>
    <tripinfo id="flow_WE.3" depart="14.00" departLane="-E13_1" departPos="5.10" departSpeed="0.00" departDelay="0.50" arrival="57.00" arrivalLane="E12_0" arrivalPos="219.10" arrivalSpeed="12.04" duration="43.00" routeLength="458.32" waitingTime="0.00" waitingCount="0" stopTime="0.00" timeLoss="4.61" rerouteNo="0" devices="tripinfo_flow_WE.3 routing_flow_WE.3" vType="standard_car" speedFactor="0.88" vaporized=""/>
    <tripinfo id="flow_WE.4" depart="18.00" departLane="-E13_0" departPos="5.10" departSpeed="0.00" departDelay="0.00" arrival="58.00" arrivalLane="E12_1" arrivalPos="219.10" arrivalSpeed="12.34" duration="40.00" routeLength="458.32" waitingTime="0.00" waitingCount="0" stopTime="0.00" timeLoss="5.62" rerouteNo="0" devices="tripinfo_flow_WE.4 routing_flow_WE.4" vType="standard_car" speedFactor="0.97" vaporized=""/>
    <tripinfo id="flow_SN.0" depart="0.00" departLane="-E11_0" departPos="5.10" departSpeed="0.00" departDelay="0.00" arrival="64.00" arrivalLane="E10_0" arrivalPos="218.88" arrivalSpeed="14.74" duration="64.00" routeLength="451.19" waitingTime="23.00" waitingCount="1" stopTime="0.00" timeLoss="33.61" rerouteNo="0" devices="tripinfo_flow_SN.0 routing_flow_SN.0" vType="standard_car" speedFactor="1.08" vaporized=""/>
    <tripinfo id="flow_SN.1" depart="4.00" departLane="-E11_1" departPos="5.10" departSpeed="0.00" departDelay="0.40" arrival="65.00" arrivalLane="E10_1" arrivalPos="218.88" arrivalSpeed="13.47" duration="61.00" routeLength="451.19" waitingTime="19.00" waitingCount="1" stopTime="0.00" timeLoss="29.04" rerouteNo="0" devices="tripinfo_flow_SN.1 routing_flow_SN.1" vType="standard_car" speedFactor="1.05" vaporized=""/>
    <tripinfo id="flow_NS.0" depart="0.00" departLane="-E10_0" departPos="5.10" departSpeed="0.00" departDelay="0.00" arrival="66.00" arrivalLane="E11_0" arrivalPos="216.41" arrivalSpeed="12.50" duration="66.00" routeLength="451.12" waitingTime="21.00" waitingCount="1" stopTime="0.00" timeLoss="31.02" rerouteNo="0" devices="tripinfo_flow_NS.0" vType="standard_car" speedFactor="0.94" vaporized=""/>
    <tripinfo id="flow_SN.2" depart="8.00" departLane="-E11_0" departPos="5.10" departSpeed="0.00" departDelay="0.80" arrival="66.00" arrivalLane="E10_0" arrivalPos="218.88" arrivalSpeed="14.60" duration="58.00" routeLength="451.19" waitingTime="16.00" waitingCount="1" stopTime="0.00" timeLoss="27.82" rerouteNo="0" devices="tripinfo_flow_SN.2 routing_flow_SN.2" vType="standard_car" speedFactor="1.09" vaporized=""/>
    <tripinfo id="flow_SN.3" depart="11.00" departLane="-E11_1" departPos="5.10" departSpeed="0.00" departDelay="0.20" arrival="67.00" arrivalLane="E10_1" arrivalPos="218.88" arrivalSpeed="13.30" duration="56.00" routeLength="451.19" waitingTime="15.00" waitingCount="1" stopTime="0.00" timeLoss="22.98" rerouteNo="0" devices="tripinfo_flow_SN.3 routing_flow_SN.3" vType="standard_car" speedFactor="0.99" vaporized=""/>
    <tripinfo id="flow_NS.1" depart="4.00" departLane="-E10_1" departPos="5.10" departSpeed="0.00" departDelay="0.40" arrival="69.00" arrivalLane="E11_1" arrivalPos="216.41" arrivalSpeed="11.39" duration="65.00" routeLength="451.12" waitingTime="15.00" waitingCount="1" stopTime="0.00" timeLoss="25.20" rerouteNo="0" devices="tripinfo_flow_NS.1" vType="standard_car" speedFactor="0.83" vaporized=""/>
    <tripinfo id="flow_SN.5" depart="18.00" departLane="-E11_1" departPos="5.10" departSpeed="0.00" departDelay="0.00" arrival="69.00" arrivalLane="E10_1" arrivalPos="218.88" arrivalSpeed="13.34" duration="51.00" routeLength="451.19" waitingTime="7.00" waitingCount="1" stopTime="0.00" timeLoss="18.37" rerouteNo="0" devices="tripinfo_flow_SN.5 routing_flow_SN.5" vType="standard_car" speedFactor="1.01" vaporized=""/>
    <tripinfo id="flow_SN.4" depart="15.00" departLane="-E11_0" departPos="5.10" departSpeed="0.00" departDelay="0.60" arrival="70.00" arrivalLane="E10_0" arrivalPos="218.88" arrivalSpeed="11.91" duration="55.00" routeLength="451.19" waitingTime="10.00" waitingCount="1" stopTime="0.00" timeLoss="20.14" rerouteNo="0" devices="tripinfo_flow_SN.4 routing_flow_SN.4" vType="standard_car" speedFactor="0.94" vaporized=""/>
    <tripinfo id="flow_NS.2" depart="8.00" departLane="-E10_0" departPos="5.10" departSpeed="0.00" departDelay="0.80" arrival="71.00" arrivalLane="E11_0" arrivalPos="216.41" arrivalSpeed="10.91" duration="63.00" routeLength="451.12" waitingTime="15.00" waitingCount="1" stopTime="0.00" timeLoss="24.28" rerouteNo="0" devices="tripinfo_flow_NS.2" vType="standard_car" speedFactor="0.86" vaporized=""/>
    <tripinfo id="flow_NS.3" depart="11.00" departLane="-E10_1" departPos="5.10" departSpeed="0.00" departDelay="0.20" arrival="71.00" arrivalLane="E11_1" arrivalPos="216.41" arrivalSpeed="13.44" duration="60.00" routeLength="451.12" waitingTime="14.00" waitingCount="1" stopTime="0.00" timeLoss="30.27" rerouteNo="0" devices="tripinfo_flow_NS.3" vType="standard_car" speedFactor="1.12" vaporized=""/>
    <tripinfo id="flow_SN.7" depart="26.00" departLane="-E11_1" departPos="5.10" departSpeed="0.00" departDelay="0.80" arrival="71.00" arrivalLane="E10_1" arrivalPos="218.88" arrivalSpeed="14.69" duration="45.00" routeLength="451.19" waitingTime="1.00" waitingCount="1" stopTime="0.00" timeLoss="15.43" rerouteNo="0" devices="tripinfo_flow_SN.7 routing_flow_SN.7" vType="standard_car" speedFactor="1.13" vaporized=""/>
    <tripinfo id="flow_NS.4" depart="15.00" departLane="-E10_0" departPos="5.10" departSpeed="0.00" departDelay="0.60" arrival="72.00" arrivalLane="E11_0" arrivalPos="216.41" arrivalSpeed="12.82" duration="57.00" routeLength="451.12" waitingTime="9.00" waitingCount="1" stopTime="0.00" timeLoss="22.30" rerouteNo="0" devices="tripinfo_flow_NS.4" vType="standard_car" speedFactor="0.94" vaporized=""/>
    <tripinfo id="flow_NS.5" depart="18.00" departLane="-E10_1" departPos="5.10" departSpeed="0.00" departDelay="0.00" arrival="72.00" arrivalLane="E11_1" arrivalPos="216.41" arrivalSpeed="13.37" duration="54.00" routeLength="451.12" waitingTime="7.00" waitingCount="1" stopTime="0.00" timeLoss="25.82" rerouteNo="0" devices="tripinfo_flow_NS.5" vType="standard_car" speedFactor="1.16" vaporized=""/>
    <tripinfo id="flow_SN.9" depart="33.00" departLane="-E11_1" departPos="5.10" departSpeed="0.00" departDelay="0.60" arrival="73.00" arrivalLane="E10_0" arrivalPos="218.88" arrivalSpeed="13.05" duration="40.00" routeLength="451.19" waitingTime="0.00" waitingCount="0" stopTime="0.00" timeLoss="6.08" rerouteNo="0" devices="tripinfo_flow_SN.9 routing_flow_SN.9" vType="standard_car" speedFactor="0.97" vaporized=""/>
    <tripinfo id="flow_NS.6" depart="22.00" departLane="-E10_0" departPos="5.10" departSpeed="0.00" departDelay="0.40" arrival="74.00" arrivalLane="E11_0" arrivalPos="216.41" arrivalSpeed="11.34" duration="52.00" routeLength="451.12" waitingTime="4.00" waitingCount="1" stopTime="0.00" timeLoss="15.15" rerouteNo="0" devices="tripinfo_flow_NS.6" vType="standard_car" speedFactor="0.89" vaporized=""/>
    <tripinfo id="flow_NS.7" depart="26.00" departLane="-E10_1" departPos="5.10" departSpeed="0.00" departDelay="0.80" arrival="74.00" arrivalLane="E11_1" arrivalPos="216.41" arrivalSpeed="12.53" duration="48.00" routeLength="451.12" waitingTime="0.00" waitingCount="0" stopTime="0.00" timeLoss="13.44" rerouteNo="0" devices="tripinfo_flow_NS.7" vType="standard_car" speedFactor="0.95" vaporized=""/>
    <tripinfo id="flow_SN.6" depart="22.00" departLane="-E11_0" departPos="5.10" departSpeed="0.00" departDelay="0.40" arrival="75.00" arrivalLane="E10_0" arrivalPos="218.88" arrivalSpeed="10.20" duration="53.00" routeLength="451.19" waitingTime="3.00" waitingCount="1" stopTime="0.00" timeLoss="13.16" rerouteNo="0" devices="tripinfo_flow_SN.6 routing_flow_SN.6" vType="standard_car" speedFactor="0.83" vaporized=""/>
    <tripinfo id="flow_SN.11" depart="40.00" departLane="-E11_1" departPos="5.10" departSpeed="0.00" departDelay="0.40" arrival="75.00" arrivalLane="E10_1" arrivalPos="218.88" arrivalSpeed="14.08" duration="35.00" routeLength="451.19" waitingTime="0.00" waitingCount="0" stopTime="0.00" timeLoss="4.59" rerouteNo="0" devices="tripinfo_flow_SN.11 routing_flow_SN.11" vType="standard_car" speedFactor="1.09" vaporized=""/>
    <tripinfo id="flow_NS.8" depart="29.00" departLane="-E10_0" departPos="5.10" departSpeed="0.00" departDelay="0.20" arrival="76.00" arrivalLane="E11_1" arrivalPos="216.41" arrivalSpeed="15.07" duration="47.00" routeLength="451.12" waitingTime="0.00" waitingCount="0" stopTime="0.00" timeLoss="18.22" rerouteNo="0" devices="tripinfo_flow_NS.8" vType="standard_car" speedFactor="1.15" vaporized=""/>
    <tripinfo id="flow_NS.10" depart="36.00" departLane="-E10_1" departPos="5.10" departSpeed="0.00" departDelay="0.00" arrival="76.00" arrivalLane="E11_0" arrivalPos="216.41" arrivalSpeed="16.23" duration="40.00" routeLength="451.12" waitingTime="0.00" waitingCount="0" stopTime="0.00" timeLoss="12.09" rerouteNo="0" devices="tripinfo_flow_NS.10" vType="standard_car" speedFactor="1.18" vaporized=""/>
    <tripinfo id="flow_SN.8" depart="29.00" departLane="-E11_0" departPos="5.10" departSpeed="0.00" departDelay="0.20" arrival="77.00" arrivalLane="E10_0" arrivalPos="218.88" arrivalSpeed="13.26" duration="48.00" routeLength="451.19" waitingTime="0.00" waitingCount="0" stopTime="0.00" timeLoss="14.80" rerouteNo="0" devices="tripinfo_flow_SN.8 routing_flow_SN.8" vType="standard_car" speedFactor="1.01" vaporized=""/>
    <tripinfo id="flow_NS.9" depart="33.00" departLane="-E10_0" departPos="5.10" departSpeed="0.00" departDelay="0.60" arrival="78.00" arrivalLane="E11_1" arrivalPos="216.41" arrivalSpeed="13.11" duration="45.00" routeLength="451.12" waitingTime="0.00" waitingCount="0" stopTime="0.00" timeLoss="12.82" rerouteNo="0" devices="tripinfo_flow_NS.9" vType="standard_car" speedFactor="1.02" vaporized=""/>
    <tripinfo id="flow_SN.10" depart="36.00" departLane="-E11_0" departPos="5.10" departSpeed="0.00" departDelay="0.00" arrival="78.00" arrivalLane="E10_1" arrivalPos="218.88" arrivalSpeed="12.11" duration="42.00" routeLength="451.19" waitingTime="0.00" waitingCount="0" stopTime="0.00" timeLoss="5.23" rerouteNo="0" devices="tripinfo_flow_SN.10 routing_flow_SN.10" vType="standard_car" speedFactor="0.90" vaporized=""/>
    <tripinfo id="flow_NS.11" depart="40.00" departLane="-E10_0" departPos="5.10" departSpeed="0.00" departDelay="0.40" arrival="80.00" arrivalLane="E11_1" arrivalPos="216.41" arrivalSpeed="13.09" duration="40.00" routeLength="451.12" waitingTime="0.00" waitingCount="0" stopTime="0.00" timeLoss="5.95" rerouteNo="0" devices="tripinfo_flow_NS.11" vType="standard_car" speedFactor="0.96" vaporized=""/>
    <tripinfo id="flow_SN.12" depart="44.00" departLane="-E11_0" departPos="5.10" departSpeed="0.00" departDelay="0.80" arrival="81.00" arrivalLane="E10_0" arrivalPos="218.88" arrivalSpeed="12.84" duration="37.00" routeLength="451.19" waitingTime="0.00" waitingCount="0" stopTime="0.00" timeLoss="4.39" rerouteNo="0" devices="tripinfo_flow_SN.12 routing_flow_SN.12" vType="standard_car" speedFactor="1.00" vaporized=""/>
    <tripinfo id="flow_NS.12" depart="44.00" departLane="-E10_1" departPos="5.10" departSpeed="0.00" departDelay="0.80" arrival="82.00" arrivalLane="E11_1" arrivalPos="216.41" arrivalSpeed="14.53" duration="38.00" routeLength="451.12" waitingTime="0.00" waitingCount="0" stopTime="0.00" timeLoss="7.62" rerouteNo="0" devices="tripinfo_flow_NS.12" vType="standard_car" speedFactor="1.09" vaporized=""/>
    <tripinfo id="flow_SN.15" depart="54.00" departLane="-E11_1" departPos="5.10" departSpeed="0.00" departDelay="0.00" arrival="87.00" arrivalLane="E10_1" arrivalPos="218.88" arrivalSpeed="14.61" duration="33.00" routeLength="451.19" waitingTime="0.00" waitingCount="0" stopTime="0.00" timeLoss="3.87" rerouteNo="0" devices="tripinfo_flow_SN.15 routing_flow_SN.15" vType="standard_car" speedFactor="1.14" vaporized=""/>
    <tripinfo id="flow_NS.13" depart="47.00" departLane="-E10_0" departPos="5.10" departSpeed="0.00" departDelay="0.20" arrival="89.00" arrivalLane="E11_1" arrivalPos="216.41" arrivalSpeed="10.87" duration="42.00" routeLength="451.12" waitingTime="0.00" waitingCount="0" stopTime="0.00" timeLoss="3.70" rerouteNo="0" devices="tripinfo_flow_NS.13" vType="standard_car" speedFactor="0.85" vaporized=""/>
    <tripinfo id="flow_SN.13" depart="47.00" departLane="-E11_1" departPos="5.10" departSpeed="0.00" departDelay="0.20" arrival="90.00" arrivalLane="E10_0" arrivalPos="218.88" arrivalSpeed="11.09" duration="43.00" routeLength="451.19" waitingTime="0.00" waitingCount="0" stopTime="0.00" timeLoss="4.43" rerouteNo="0" devices="tripinfo_flow_SN.13 routing_flow_SN.13" vType="standard_car" speedFactor="0.85" vaporized=""/>
    <tripinfo id="flow_NS.14" depart="51.00" departLane="-E10_1" departPos="5.10" departSpeed="0.00" departDelay="0.60" arrival="90.00" arrivalLane="E11_0" arrivalPos="216.41" arrivalSpeed="13.92" duration="39.00" routeLength="451.12" waitingTime="0.00" waitingCount="0" stopTime="0.00" timeLoss="8.50" rerouteNo="0" devices="tripinfo_flow_NS.14" vType="standard_car" speedFactor="1.10" vaporized=""/>
    <tripinfo id="flow_SN.14" depart="51.00" departLane="-E11_0" departPos="5.10" departSpeed="0.00" departDelay="0.60" arrival="90.00" arrivalLane="E10_1" arrivalPos="218.88" arrivalSpeed="13.10" duration="39.00" routeLength="451.19" waitingTime="0.00" waitingCount="0" stopTime="0.00" timeLoss="5.75" rerouteNo="0" devices="tripinfo_flow_SN.14 routing_flow_SN.14" vType="standard_car" speedFactor="1.00" vaporized=""/>
    <tripinfo id="flow_NS.15" depart="54.00" departLane="-E10_0" departPos="5.10" departSpeed="0.00" departDelay="0.00" arrival="92.00" arrivalLane="E11_1" arrivalPos="216.41" arrivalSpeed="13.62" duration="38.00" routeLength="451.12" waitingTime="0.00" waitingCount="0" stopTime="0.00" timeLoss="4.59" rerouteNo="0" devices="tripinfo_flow_NS.15" vType="standard_car" speedFactor="1.00" vaporized=""/>
    <tripinfo id="flow_SN.16" depart="58.00" departLane="-E11_0" departPos="5.10" departSpeed="0.00" departDelay="0.40" arrival="93.00" arrivalLane="E10_0" arrivalPos="218.88" arrivalSpeed="14.03" duration="35.00" routeLength="451.19" waitingTime="0.00" waitingCount="0" stopTime="0.00" timeLoss="4.68" rerouteNo="0" devices="tripinfo_flow_SN.16 routing_flow_SN.16" vType="standard_car" speedFactor="1.08" vaporized=""/>
    <tripinfo id="flow_NS.16" depart="58.00" departLane="-E10_1" departPos="5.10" departSpeed="0.00" departDelay="0.40" arrival="97.00" arrivalLane="E11_0" arrivalPos="216.41" arrivalSpeed="12.89" duration="39.00" routeLength="451.12" waitingTime="0.00" waitingCount="0" stopTime="0.00" timeLoss="5.00" rerouteNo="0" devices="tripinfo_flow_NS.16" vType="standard_car" speedFactor="0.97" vaporized=""/>
    <tripinfo id="flow_NS.17" depart="62.00" departLane="-E10_0" departPos="5.10" departSpeed="0.00" departDelay="0.80" arrival="100.00" arrivalLane="E11_1" arrivalPos="216.41" arrivalSpeed="12.89" duration="38.00" routeLength="451.12" waitingTime="0.00" waitingCount="0" stopTime="0.00" timeLoss="4.97" rerouteNo="0" devices="tripinfo_flow_NS.17" vType="standard_car" speedFactor="0.99" vaporized=""/>
    <tripinfo id="flow_SN.17" depart="62.00" departLane="-E11_1" departPos="5.10" departSpeed="0.00" departDelay="0.80" arrival="101.00" arrivalLane="E10_0" arrivalPos="218.88" arrivalSpeed="12.16" duration="39.00" routeLength="451.19" waitingTime="0.00" waitingCount="0" stopTime="0.00" timeLoss="4.13" rerouteNo="0" devices="tripinfo_flow_SN.17 routing_flow_SN.17" vType="standard_car" speedFactor="0.94" vaporized=""/>
    <tripinfo id="flow_SN.18" depart="65.00" departLane="-E11_0" departPos="5.10" departSpeed="0.00" departDelay="0.20" arrival="101.00" arrivalLane="E10_1" arrivalPos="218.88" arrivalSpeed="13.27" duration="36.00" routeLength="451.19" waitingTime="0.00" waitingCount="0" stopTime="0.00" timeLoss="4.36" rerouteNo="0" devices="tripinfo_flow_SN.18 routing_flow_SN.18" vType="standard_car" speedFactor="1.04" vaporized=""/>
    <tripinfo id="flow_NS.18" depart="65.00" departLane="-E10_1" departPos="5.10" departSpeed="0.00" departDelay="0.20" arrival="105.00" arrivalLane="E11_0" arrivalPos="216.41" arrivalSpeed="12.17" duration="40.00" routeLength="451.12" waitingTime="0.00" waitingCount="0" stopTime="0.00" timeLoss="4.41" rerouteNo="0" devices="tripinfo_flow_NS.18" vType="standard_car" speedFactor="0.91" vaporized=""/>
    <tripinfo id="flow_WE.6" depart="27.00" departLane="-E13_0" departPos="5.10" departSpeed="0.00" departDelay="0.00" arrival="109.00" arrivalLane="E12_1" arrivalPos="219.10" arrivalSpeed="15.15" duration="82.00" routeLength="458.32" waitingTime="41.00" waitingCount="1" stopTime="0.00" timeLoss="53.46" rerouteNo="0" devices="tripinfo_flow_WE.6 routing_flow_WE.6" vType="standard_car" speedFactor="1.18" vaporized=""/>
    <tripinfo id="flow_WE.5" depart="23.00" departLane="-E13_1" departPos="5.10" departSpeed="0.00" departDelay="0.50" arrival="112.00" arrivalLane="E12_0" arrivalPos="219.10" arrivalSpeed="11.57" duration="89.00" routeLength="458.32" waitingTime="44.00" waitingCount="1" stopTime="0.00" timeLoss="52.43" rerouteNo="0" devices="tripinfo_flow_WE.5 routing_flow_WE.5" vType="standard_car" speedFactor="0.92" vaporized=""/>
    <tripinfo id="flow_EW.6" depart="27.00" departLane="-E12_0" departPos="5.10" departSpeed="0.00" departDelay="0.00" arrival="112.00" arrivalLane="E13_1" arrivalPos="223.35" arrivalSpeed="11.88" duration="85.00" routeLength="458.33" waitingTime="40.00" waitingCount="1" stopTime="0.00" timeLoss="49.41" rerouteNo="0" devices="tripinfo_flow_EW.6 routing_flow_EW.6" vType="standard_car" speedFactor="0.93" vaporized=""/>
    <tripinfo id="flow_WE.8" depart="36.00" departLane="-E13_0" departPos="5.10" departSpeed="0.00" departDelay="0.00" arrival="112.00" arrivalLane="E12_1" arrivalPos="219.10" arrivalSpeed="13.69" duration="76.00" routeLength="458.32" waitingTime="32.00" waitingCount="1" stopTime="0.00" timeLoss="43.89" rerouteNo="0" devices="tripinfo_flow_WE.8 routing_flow_WE.8" vType="standard_car" speedFactor="1.03" vaporized=""/>
    <tripinfo id="flow_WE.7" depart="32.00" departLane="-E13_1" departPos="5.10" departSpeed="0.00" departDelay="0.50" arrival="113.00" arrivalLane="E12_0" arrivalPos="219.10" arrivalSpeed="13.79" duration="81.00" routeLength="458.32" waitingTime="35.00" waitingCount="1" stopTime="0.00" timeLoss="47.84" rerouteNo="0" devices="tripinfo_flow_WE.7 routing_flow_WE.7" vType="standard_car" speedFactor="0.99" vaporized=""/>
    <tripinfo id="flow_EW.5" depart="23.00" departLane="-E12_1" departPos="5.10" departSpeed="0.00" departDelay="0.50" arrival="114.00" arrivalLane="E13_0" arrivalPos="223.35" arrivalSpeed="11.65" duration="91.00" routeLength="458.33" waitingTime="41.00" waitingCount="1" stopTime="0.00" timeLoss="52.35" rerouteNo="0" devices="tripinfo_flow_EW.5 routing_flow_EW.5" vType="standard_car" speedFactor="0.87" vaporized=""/>
    <tripinfo id="flow_EW.7" depart="32.00" departLane="-E12_1" departPos="5.10" departSpeed="0.00" departDelay="0.50" arrival="114.00" arrivalLane="E13_1" arrivalPos="223.35" arrivalSpeed="16.25" duration="82.00" routeLength="458.33" waitingTime="39.00" waitingCount="1" stopTime="0.00" timeLoss="53.06" rerouteNo="0" devices="tripinfo_flow_EW.7 routing_flow_EW.7" vType="standard_car" speedFactor="1.17" vaporized=""/>
    <tripinfo id="flow_EW.8" depart="36.00" departLane="-E12_0" departPos="5.10" departSpeed="0.00" departDelay="0.00" arrival="115.00" arrivalLane="E13_0" arrivalPos="223.35" arrivalSpeed="12.36" duration="79.00" routeLength="458.33" waitingTime="34.00" waitingCount="1" stopTime="0.00" timeLoss="49.03" rerouteNo="0" devices="tripinfo_flow_EW.8 routing_flow_EW.8" vType="standard_car" speedFactor="1.10" vaporized=""/>
    <tripinfo id="flow_EW.9" depart="41.00" departLane="-E12_1" departPos="5.10" departSpeed="0.00" departDelay="0.50" arrival="115.00" arrivalLane="E13_1" arrivalPos="223.35" arrivalSpeed="13.71" duration="74.00" routeLength="458.33" waitingTime="29.00" waitingCount="1" stopTime="0.00" timeLoss="42.21" rerouteNo="0" devices="tripinfo_flow_EW.9 routing_flow_EW.9" vType="standard_car" speedFactor="1.04" vaporized=""/>
    <tripinfo id="flow_WE.9" depart="41.00" departLane="-E13_1" departPos="5.10" departSpeed="0.00" departDelay="0.50" arrival="115.00" arrivalLane="E12_0" arrivalPos="219.10" arrivalSpeed="14.02" duration="74.00" routeLength="458.32" waitingTime="30.00" waitingCount="1" stopTime="0.00" timeLoss="42.08" rerouteNo="0" devices="tripinfo_flow_WE.9 routing_flow_WE.9" vType="standard_car" speedFactor="1.04" vaporized=""/>
    <tripinfo id="flow_EW.10" depart="45.00" departLane="-E12_0" departPos="5.10" departSpeed="0.00" departDelay="0.00" arrival="117.00" arrivalLane="E13_0" arrivalPos="223.35" arrivalSpeed="11.76" duration="72.00" routeLength="458.33" waitingTime="26.00" waitingCount="1" stopTime="0.00" timeLoss="35.27" rerouteNo="0" devices="tripinfo_flow_EW.10 routing_flow_EW.10" vType="standard_car" speedFactor="0.90" vaporized=""/>
    <tripinfo id="flow_WE.10" depart="45.00" departLane="-E13_0" departPos="5.10" departSpeed="0.00" departDelay="0.00" arrival="117.00" arrivalLane="E12_1" arrivalPos="219.10" arrivalSpeed="11.10" duration="72.00" routeLength="458.32" waitingTime="23.00" waitingCount="1" stopTime="0.00" timeLoss="33.89" rerouteNo="0" devices="tripinfo_flow_WE.10 routing_flow_WE.10" vType="standard_car" speedFactor="0.88" vaporized=""/>
    <tripinfo id="flow_EW.11" depart="50.00" departLane="-E12_1" departPos="5.10" departSpeed="0.00" departDelay="0.50" arrival="117.00" arrivalLane="E13_1" arrivalPos="223.35" arrivalSpeed="14.97" duration="67.00" routeLength="458.33" waitingTime="25.00" waitingCount="1" stopTime="0.00" timeLoss="38.40" rerouteNo="0" devices="tripinfo_flow_EW.11 routing_flow_EW.11" vType="standard_car" speedFactor="1.17" vaporized=""/>
    <tripinfo id="flow_WE.12" depart="54.00" departLane="-E13_0" departPos="5.10" departSpeed="0.00" departDelay="0.00" arrival="117.00" arrivalLane="E12_0" arrivalPos="219.10" arrivalSpeed="13.20" duration="63.00" routeLength="458.32" waitingTime="19.00" waitingCount="1" stopTime="0.00" timeLoss="30.31" rerouteNo="0" devices="tripinfo_flow_WE.12 routing_flow_WE.12" vType="standard_car" speedFactor="1.02" vaporized=""/>
    <tripinfo id="flow_WE.11" depart="50.00" departLane="-E13_1" departPos="5.10" departSpeed="0.00" departDelay="0.50" arrival="119.00" arrivalLane="E12_1" arrivalPos="219.10" arrivalSpeed="13.69" duration="69.00" routeLength="458.32" waitingTime="20.00" waitingCount="1" stopTime="0.00" timeLoss="35.72" rerouteNo="0" devices="tripinfo_flow_WE.11 routing_flow_WE.11" vType="standard_car" speedFactor="1.02" vaporized=""/>
    <tripinfo id="flow_EW.12" depart="54.00" departLane="-E12_0" departPos="5.10" departSpeed="0.00" departDelay="0.00" arrival="119.00" arrivalLane="E13_0" arrivalPos="223.35" arrivalSpeed="12.41" duration="65.00" routeLength="458.33" waitingTime="16.00" waitingCount="1" stopTime="0.00" timeLoss="28.07" rerouteNo="0" devices="tripinfo_flow_EW.12 routing_flow_EW.12" vType="standard_car" speedFactor="0.90" vaporized=""/>
    <tripinfo id="flow_EW.13" depart="59.00" departLane="-E12_1" departPos="5.10" departSpeed="0.00" departDelay="0.50" arrival="119.00" arrivalLane="E13_1" arrivalPos="223.35" arrivalSpeed="15.42" duration="60.00" routeLength="458.33" waitingTime="15.00" waitingCount="1" stopTime="0.00" timeLoss="29.86" rerouteNo="0" devices="tripinfo_flow_EW.13 routing_flow_EW.13" vType="standard_car" speedFactor="1.12" vaporized=""/>
    <tripinfo id="flow_WE.13" depart="59.00" departLane="-E13_1" departPos="5.10" departSpeed="0.00" departDelay="0.50" arrival="119.00" arrivalLane="E12_0" arrivalPos="219.10" arrivalSpeed="13.48" duration="60.00" routeLength="458.32" waitingTime="15.00" waitingCount="1" stopTime="0.00" timeLoss="26.81" rerouteNo="0" devices="tripinfo_flow_WE.13 routing_flow_WE.13" vType="standard_car" speedFactor="1.02" vaporized=""/>
    <tripinfo id="flow_WE.16" depart="72.00" departLane="-E13_0" departPos="5.10" departSpeed="0.00" departDelay="0.00" arrival="120.00" arrivalLane="E12_0" arrivalPos="219.10" arrivalSpeed="13.99" duration="48.00" routeLength="458.32" waitingTime="2.00" waitingCount="1" stopTime="0.00" timeLoss="15.96" rerouteNo="0" devices="tripinfo_flow_WE.16 routing_flow_WE.16" vType="standard_car" speedFactor="1.03" vaporized=""/>
    <tripinfo id="flow_WE.14" depart="63.00" departLane="-E13_0" departPos="5.10" departSpeed="0.00" departDelay="0.00" arrival="121.00" arrivalLane="E12_1" arrivalPos="219.10" arrivalSpeed="11.47" duration="58.00" routeLength="458.32" waitingTime="8.00" waitingCount="1" stopTime="0.00" timeLoss="20.74" rerouteNo="0" devices="tripinfo_flow_WE.14 routing_flow_WE.14" vType="standard_car" speedFactor="0.91" vaporized=""/>
    <tripinfo id="flow_EW.15" depart="68.00" departLane="-E12_1" departPos="5.10" departSpeed="0.00" departDelay="0.50" arrival="121.00" arrivalLane="E13_1" arrivalPos="223.35" arrivalSpeed="13.68" duration="53.00" routeLength="458.33" waitingTime="8.00" waitingCount="1" stopTime="0.00" timeLoss="20.14" rerouteNo="0" devices="tripinfo_flow_EW.15 routing_flow_EW.15" vType="standard_car" speedFactor="1.02" vaporized=""/>
    <tripinfo id="flow_EW.14" depart="63.00" departLane="-E12_0" departPos="5.10" departSpeed="0.00" departDelay="0.00" arrival="122.00" arrivalLane="E13_0" arrivalPos="223.35" arrivalSpeed="11.78" duration="59.00" routeLength="458.33" waitingTime="9.00" waitingCount="1" stopTime="0.00" timeLoss="20.81" rerouteNo="0" devices="tripinfo_flow_EW.14 routing_flow_EW.14" vType="standard_car" speedFactor="0.88" vaporized=""/>